&FCI NORB=24, NELEC=10, MS2=0,
ORBSYM=1,1,1,1,1,1,1,1,1,1,1,1,1,1,1,1,1,1,1,1,1,1,1,1,
ISYM=1,
&END
4.70965359108275 1 1 1 1
-0.429643952885409 1 1 1 2
-0.13486834407418 1 1 1 4
0.135030726156274 1 1 1 6
0.03079139909063625 1 1 1 8
0.160821245932855 1 1 1 11
-0.178774521835372 1 1 1 13
0.304658613761382 1 1 1 16
-0.159067803483433 1 1 1 18
0.02136630908950856 1 1 1 22
-0.06813323357863936 1 1 1 23
-0.429643952885409 1 2 1 1
0.06442053393121182 1 2 1 2
0.01644292163292913 1 2 1 4
-0.02134514599363312 1 2 1 6
-0.001046161884461637 1 2 1 8
-0.02499089955290128 1 2 1 11
0.02800395871136825 1 2 1 13
-0.04525523922950575 1 2 1 16
0.02627254597850955 1 2 1 18
-0.005759721392248424 1 2 1 22
0.01302600815691262 1 2 1 23
0.02127537769347501 1 3 1 3
0.01371043595450324 1 3 1 7
0.01245497740333192 1 3 1 10
0.02263394915257037 1 3 1 12
0.003630956155156266 1 3 1 17
-0.01410253756715209 1 3 1 19
0.02117126074442102 1 3 1 24
-0.13486834407418 1 4 1 1
0.01644292163292913 1 4 1 2
0.03136776791346628 1 4 1 4
0.0005534061789460514 1 4 1 6
-0.02584071531295449 1 4 1 8
-0.00289042699518434 1 4 1 11
0.002262209025326919 1 4 1 13
-0.02066157526651126 1 4 1 16
-0.00608655572303936 1 4 1 18
0.01471020184413263 1 4 1 22
-0.01305730789884356 1 4 1 23
0.03210154165224961 1 5 1 5
0.03115452126038609 1 5 1 9
0.00849877766403889 1 5 1 15
-0.004730482211632635 1 5 1 20
0.135030726156274 1 6 1 1
-0.02134514599363312 1 6 1 2
0.0005534061789460514 1 6 1 4
0.008401691152071015 1 6 1 6
-0.005304661124460517 1 6 1 8
0.009055273860896882 1 6 1 11
-0.01036283477767492 1 6 1 13
0.01299024879603382 1 6 1 16
-0.01154009687239575 1 6 1 18
0.005490330476703463 1 6 1 22
-0.00794313726049811 1 6 1 23
0.01371043595450324 1 7 1 3
0.008837662486629923 1 7 1 7
0.008027119901720252 1 7 1 10
0.01460649331127738 1 7 1 12
0.00233781034737911 1 7 1 17
-0.009123785777840647 1 7 1 19
0.01358806313147148 1 7 1 24
0.03079139909063625 1 8 1 1
-0.001046161884461637 1 8 1 2
-0.02584071531295449 1 8 1 4
-0.005304661124460517 1 8 1 6
0.02417343831327419 1 8 1 8
-0.002890344735094849 1 8 1 11
0.004163937808126313 1 8 1 13
0.009339650369323984 1 8 1 16
0.01176381107025943 1 8 1 18
-0.01510859356352665 1 8 1 22
0.01524348437457653 1 8 1 23
0.03115452126038609 1 9 1 5
0.03032954209024775 1 9 1 9
0.008277619233707878 1 9 1 15
-0.004540265256407673 1 9 1 20
0.01245497740333192 1 10 1 3
0.008027119901720252 1 10 1 7
0.007381766548655613 1 10 1 10
0.01334005316629184 1 10 1 12
0.002115383019125603 1 10 1 17
-0.008340575959040848 1 10 1 19
0.01250500047850471 1 10 1 24
0.160821245932855 1 11 1 1
-0.02499089955290128 1 11 1 2
-0.00289042699518434 1 11 1 4
0.009055273860896882 1 11 1 6
-0.002890344735094849 1 11 1 8
0.01024602037952591 1 11 1 11
-0.01146850208280317 1 11 1 13
0.01632824899043205 1 11 1 16
-0.01211416288266341 1 11 1 18
0.004273474418804327 1 11 1 22
-0.006727724717138123 1 11 1 23
0.02263394915257037 1 12 1 3
0.01460649331127738 1 12 1 7
0.01334005316629184 1 12 1 10
0.02441614031333443 1 12 1 12
0.003824343531372256 1 12 1 17
-0.01552412271542534 1 12 1 19
0.0218513962183179 1 12 1 24
-0.178774521835372 1 13 1 1
0.02800395871136825 1 13 1 2
0.002262209025326919 1 13 1 4
-0.01036283477767492 1 13 1 6
0.004163937808126313 1 13 1 8
-0.01146850208280317 1 13 1 11
0.01318279658208064 1 13 1 13
-0.01795949038400915 1 13 1 16
0.01378228294854783 1 13 1 18
-0.004975931743196051 1 13 1 22
0.008958455349971906 1 13 1 23
0.0001968849736780652 1 14 1 14
0.0006865652129948015 1 14 1 21
0.00849877766403889 1 15 1 5
0.008277619233707878 1 15 1 9
0.002529070604460114 1 15 1 15
-0.0004817797749092196 1 15 1 20
0.304658613761382 1 16 1 1
-0.04525523922950575 1 16 1 2
-0.02066157526651126 1 16 1 4
0.01299024879603382 1 16 1 6
0.009339650369323984 1 16 1 8
0.01632824899043205 1 16 1 11
-0.01795949038400915 1 16 1 13
0.0350446152941583 1 16 1 16
-0.01386391117864935 1 16 1 18
-0.0008700104716607308 1 16 1 22
-0.003774585591095305 1 16 1 23
0.003630956155156266 1 17 1 3
0.00233781034737911 1 17 1 7
0.002115383019125603 1 17 1 10
0.003824343531372256 1 17 1 12
0.0006253405027617707 1 17 1 17
-0.002347346311905178 1 17 1 19
0.003691006115199123 1 17 1 24
-0.159067803483433 1 18 1 1
0.02627254597850955 1 18 1 2
-0.00608655572303936 1 18 1 4
-0.01154009687239575 1 18 1 6
0.01176381107025943 1 18 1 8
-0.01211416288266341 1 18 1 11
0.01378228294854783 1 18 1 13
-0.01386391117864935 1 18 1 16
0.01775145500154995 1 18 1 18
-0.009400955460701648 1 18 1 22
0.01212366331247051 1 18 1 23
-0.01410253756715209 1 19 1 3
-0.009123785777840647 1 19 1 7
-0.008340575959040848 1 19 1 10
-0.01552412271542534 1 19 1 12
-0.002347346311905178 1 19 1 17
0.01019876363897702 1 19 1 19
-0.01275953307189117 1 19 1 24
-0.004730482211632635 1 20 1 5
-0.004540265256407673 1 20 1 9
-0.0004817797749092196 1 20 1 15
0.002847767904768516 1 20 1 20
0.0006865652129948015 1 21 1 14
0.002413623048627305 1 21 1 21
0.02136630908950856 1 22 1 1
-0.005759721392248424 1 22 1 2
0.01471020184413263 1 22 1 4
0.005490330476703463 1 22 1 6
-0.01510859356352665 1 22 1 8
0.004273474418804327 1 22 1 11
-0.004975931743196051 1 22 1 13
-0.0008700104716607308 1 22 1 16
-0.009400955460701648 1 22 1 18
0.01213656139665877 1 22 1 22
-0.01031599105257049 1 22 1 23
-0.06813323357863936 1 23 1 1
0.01302600815691262 1 23 1 2
-0.01305730789884356 1 23 1 4
-0.00794313726049811 1 23 1 6
0.01524348437457653 1 23 1 8
-0.006727724717138123 1 23 1 11
0.008958455349971906 1 23 1 13
-0.003774585591095305 1 23 1 16
0.01212366331247051 1 23 1 18
-0.01031599105257049 1 23 1 22
0.0149289504587309 1 23 1 23
0.02117126074442102 1 24 1 3
0.01358806313147148 1 24 1 7
0.01250500047850471 1 24 1 10
0.0218513962183179 1 24 1 12
0.003691006115199123 1 24 1 17
-0.01275953307189117 1 24 1 19
0.02374440043837363 1 24 1 24
-0.429643952885409 1 1 2 1
1.04825117519201 1 1 2 2
0.08936181620680929 1 1 2 4
-0.197423456012055 1 1 2 6
0.02011070378703943 1 1 2 8
-0.180383607546494 1 1 2 11
0.193148256376295 1 1 2 13
-0.275544751637973 1 1 2 16
0.137642502383548 1 1 2 18
-0.04103343330122913 1 1 2 22
0.07590299538701216 1 1 2 23
0.06442053393121179 1 2 2 1
-0.01454546969362354 1 2 2 2
-0.007647889805631652 1 2 2 4
0.004368902204986691 1 2 2 6
0.002098209752342053 1 2 2 8
0.005482345216756549 1 2 2 11
-0.006509779605314177 1 2 2 13
0.0114150311515911 1 2 2 16
-0.006224396610724897 1 2 2 18
0.0002453791745960069 1 2 2 22
-0.002895669730282258 1 2 2 23
0.02388485624993493 1 3 2 3
0.01136852621190402 1 3 2 7
0.005532501081848671 1 3 2 10
0.01134553603984342 1 3 2 12
0.00278718016772825 1 3 2 17
-0.001932262278461452 1 3 2 19
0.009689305674201513 1 3 2 24
0.01644292163292913 1 4 2 1
-0.0142224577759759 1 4 2 2
0.02330713400396117 1 4 2 4
0.008432782116811356 1 4 2 6
-0.01387704763985059 1 4 2 8
0.007420144657380998 1 4 2 11
-0.006008862463232936 1 4 2 13
0.002220775142633526 1 4 2 16
-0.006154300759049262 1 4 2 18
0.009781202909465991 1 4 2 22
-0.005149068206595051 1 4 2 23
0.03010034708720816 1 5 2 5
0.01666046733275674 1 5 2 9
0.002974929294265908 1 5 2 15
-0.00547022999575657 1 5 2 20
-0.02134514599363312 1 6 2 1
0.002227828156011963 1 6 2 2
0.007957897283846329 1 6 2 4
0.0002782500044300658 1 6 2 6
-0.003867817932914881 1 6 2 8
-0.000342082839237962 1 6 2 11
0.001055387611182962 1 6 2 13
-0.00373310586527756 1 6 2 16
0.0008840900155997252 1 6 2 18
0.002097728738485646 1 6 2 22
-7.842028834522232e-05 1 6 2 23
0.01514402481171611 1 7 2 3
0.007297781920034698 1 7 2 7
0.003483538687513005 1 7 2 10
0.007395786996051292 1 7 2 12
0.001772813121761814 1 7 2 17
-0.001468696656720142 1 7 2 19
0.006083940161327657 1 7 2 24
-0.001046161884461634 1 8 2 1
0.00926783851562032 1 8 2 2
-0.02152626276856172 1 8 2 4
-0.006449402428420513 1 8 2 6
0.0125467794020936 1 8 2 8
-0.005398760784402121 1 8 2 11
0.004037388221274661 1 8 2 13
0.0004424883985407235 1 8 2 16
0.004406737651281624 1 8 2 18
-0.008418912624608766 1 8 2 22
0.003990730402408794 1 8 2 23
0.02675210710768654 1 9 2 5
0.01506781976550822 1 9 2 9
0.002820848961485662 1 9 2 15
-0.004818891051793933 1 9 2 20
0.01179980603953303 1 10 2 3
0.005688702584961312 1 10 2 7
0.002884329808281469 1 10 2 10
0.005722348131129558 1 10 2 12
0.001451053358923127 1 10 2 17
-0.0009744643739462598 1 10 2 19
0.005183468142445158 1 10 2 24
-0.02499089955290127 1 11 2 1
0.003650123999354906 1 11 2 2
0.006188121193616598 1 11 2 4
-0.0004787333401301449 1 11 2 6
-0.002763200923700487 1 11 2 8
-0.0006828568249672972 1 11 2 11
0.001921376911747067 1 11 2 13
-0.004436319814096869 1 11 2 16
0.0008000983320304877 1 11 2 18
0.001292396991941418 1 11 2 22
0.001309700339514702 1 11 2 23
0.02246298483628159 1 12 2 3
0.01108147461777515 1 12 2 7
0.005025842635761125 1 12 2 10
0.01166335203848079 1 12 2 12
0.002583321727027257 1 12 2 17
-0.003246104313825971 1 12 2 19
0.008131822597417621 1 12 2 24
0.02800395871136824 1 13 2 1
-0.003567632266454954 1 13 2 2
-0.007209141203204245 1 13 2 4
0.0003963597660369406 1 13 2 6
0.003323287788480642 1 13 2 8
0.001265449985590235 1 13 2 11
-0.001194938724416515 1 13 2 13
0.004851009353976766 1 13 2 16
-0.001602270219310007 1 13 2 18
-0.0004879726176827424 1 13 2 22
0.000436971599454676 1 13 2 23
0.0008311715282136872 1 14 2 14
0.001659488120896051 1 14 2 21
0.007262475714622446 1 15 2 5
0.004088773765573048 1 15 2 9
0.001711301678724865 1 15 2 15
0.0004714371295575282 1 15 2 20
-0.04525523922950573 1 16 2 1
0.0117764105123496 1 16 2 2
-0.003085223255695293 1 16 2 4
-0.004929569390229522 1 16 2 6
0.003160988357328576 1 16 2 8
-0.005476912051489783 1 16 2 11
0.005693365820852815 1 16 2 13
-0.006341696834461185 1 16 2 16
0.006258904146228772 1 16 2 18
-0.00209333467164639 1 16 2 22
0.003033620118341298 1 16 2 23
0.004275513640114484 1 17 2 3
0.002037975303995682 1 17 2 7
0.001044876677072052 1 17 2 10
0.001998164871907064 1 17 2 12
0.0005939844895548347 1 17 2 17
-0.0002228203337305804 1 17 2 19
0.001943525662780073 1 17 2 24
0.02627254597850954 1 18 2 1
-0.001036636127132998 1 18 2 2
-0.01244111521457926 1 18 2 4
-0.001499138016931021 1 18 2 6
0.006582325758377801 1 18 2 8
-0.00148302365324112 1 18 2 11
-0.0005006188577992045 1 18 2 13
0.00536421881046996 1 18 2 16
0.00229340682911079 1 18 2 18
-0.00273020710549894 1 18 2 22
-0.001069308132443995 1 18 2 23
-0.01248188000358288 1 19 2 3
-0.006493428682397228 1 19 2 7
-0.002470457280436425 1 19 2 10
-0.007467829716258358 1 19 2 12
-0.001317086652465316 1 19 2 17
0.003510786547941419 1 19 2 19
-0.002878045481501377 1 19 2 24
-0.0052625445505874 1 20 2 5
-0.002968586515333025 1 20 2 9
0.001736284692382688 1 20 2 15
0.00568383514887492 1 20 2 20
0.002341115091347025 1 21 2 14
0.005299505290585553 1 21 2 21
-0.005759721392248424 1 22 2 1
-0.004866409026038947 1 22 2 2
0.01508378944547002 1 22 2 4
0.00392188073338732 1 22 2 6
-0.008622305612743093 1 22 2 8
0.003188006775394997 1 22 2 11
-0.0006190089115940717 1 22 2 13
9.458538483341014e-05 1 22 2 16
-0.0009921514468491453 1 22 2 18
0.00997016591454742 1 22 2 22
-0.001126414700177634 1 22 2 23
0.01302600815691262 1 23 2 1
0.003310872848775765 1 23 2 2
-0.01411177654854386 1 23 2 4
-0.00302657608977097 1 23 2 6
0.00785253054564858 1 23 2 8
-0.0008263878824543685 1 23 2 11
0.002668243641971835 1 23 2 13
0.001893564314340889 1 23 2 16
-0.001086639283064719 1 23 2 18
-0.003403013347739022 1 23 2 22
0.006435599157323727 1 23 2 23
0.02218585689876911 1 24 2 3
0.01026693286020498 1 24 2 7
0.006081749603573911 1 24 2 10
0.009180921684141714 1 24 2 12
0.003014193570745344 1 24 2 17
0.001338946963275018 1 24 2 19
0.01393583621919934 1 24 2 24
0.883300596020328 1 1 3 3
0.274341989459454 1 1 3 7
0.163080509810988 1 1 3 10
0.288167166330742 1 1 3 12
0.06437456869540334 1 1 3 17
-0.08870368309914377 1 1 3 19
0.219411680805474 1 1 3 24
-0.006926650333901828 1 2 3 3
-0.005195816567443796 1 2 3 7
-0.003637387003133162 1 2 3 10
-0.009006438073356497 1 2 3 12
-0.001029314765998145 1 2 3 17
0.006748226942701975 1 2 3 19
-0.005464043389226438 1 2 3 24
0.02127537769347501 1 3 3 1
0.02388485624993493 1 3 3 2
0.003097319299528695 1 3 3 4
-0.004246570642291778 1 3 3 6
-0.0002587779129037906 1 3 3 8
0.001698826982279569 1 3 3 11
0.01070876762543351 1 3 3 13
-0.00978152115064691 1 3 3 16
-0.005304142145143614 1 3 3 18
0.004987384903801874 1 3 3 22
0.0158154881927515 1 3 3 23
-0.007228603719452486 1 4 3 3
-0.0002592268897824449 1 4 3 7
-0.005752990985641071 1 4 3 10
0.003410018532994101 1 4 3 12
-0.002335881188683419 1 4 3 17
-0.009792726771491046 1 4 3 19
-0.01575043202757696 1 4 3 24
0.009766116548665367 1 5 3 14
0.01769147796180433 1 5 3 21
0.0008942999616710291 1 6 3 3
0.001760848785190853 1 6 3 7
5.146787419470449e-05 1 6 3 10
0.003938831318578571 1 6 3 12
-0.0001733000976424083 1 6 3 17
-0.004589454304977905 1 6 3 19
-0.001560871462558909 1 6 3 24
0.01371043595450325 1 7 3 1
0.01514402481171611 1 7 3 2
0.002205193099668886 1 7 3 4
-0.002709668820075214 1 7 3 6
-0.0002726212877173301 1 7 3 8
0.0009824789373217618 1 7 3 11
0.006832093384806087 1 7 3 13
-0.006311229449970679 1 7 3 16
-0.003323138307227751 1 7 3 18
0.003192132397238638 1 7 3 22
0.01018127176046962 1 7 3 23
0.00463383663688155 1 8 3 3
-0.000770059924290617 1 8 3 7
0.004088795795415446 1 8 3 10
-0.004687023655098859 1 8 3 12
0.001765995892318584 1 8 3 17
0.009769567480675603 1 8 3 19
0.01273102114485166 1 8 3 24
0.008532646777092525 1 9 3 14
0.01587825784947207 1 9 3 21
0.01245497740333192 1 10 3 1
0.01179980603953303 1 10 3 2
0.001468083720064537 1 10 3 4
-0.002239349648552748 1 10 3 6
-9.071603555699736e-05 1 10 3 8
0.0006617935409694908 1 10 3 11
0.005358090320670226 1 10 3 13
-0.005069098551005582 1 10 3 16
-0.00251001789394354 1 10 3 18
0.00243722569824272 1 10 3 22
0.00805757306088825 1 10 3 23
0.002470632679970042 1 11 3 3
0.002339263195658188 1 11 3 7
0.0009198298973212182 1 11 3 10
0.004395117956401815 1 11 3 12
-1.067355710379122e-05 1 11 3 17
-0.004148737450243759 1 11 3 19
0.0003096636533793164 1 11 3 24
0.02263394915257037 1 12 3 1
0.02246298483628159 1 12 3 2
0.004613525685783927 1 12 3 4
-0.003917480689093964 1 12 3 6
-0.001256711419902602 1 12 3 8
0.001420903928960692 1 12 3 11
0.01014215482457138 1 12 3 13
-0.009801089574327437 1 12 3 16
-0.005172056389813578 1 12 3 18
0.005172809635848417 1 12 3 22
0.0154328911703551 1 12 3 23
-0.0005188188313598066 1 13 3 3
-0.001520214979337111 1 13 3 7
-0.0003589395013046697 1 13 3 10
-0.00373805409689785 1 13 3 12
-0.0001151029190899523 1 13 3 17
0.004431866645965367 1 13 3 19
0.001027776059790695 1 13 3 24
0.001537499255404702 1 14 3 5
0.0009663091733298478 1 14 3 9
3.640479356478343e-05 1 14 3 15
-0.0001236443957543498 1 14 3 20
0.00217112460389442 1 15 3 14
0.004534887807166667 1 15 3 21
0.004917449093535213 1 16 3 3
0.002389132348511968 1 16 3 7
0.003522867478747508 1 16 3 10
0.003393972208775383 1 16 3 12
0.001103373465900779 1 16 3 17
-0.0005242716331907892 1 16 3 19
0.007802074017769909 1 16 3 24
0.003630956155156267 1 17 3 1
0.004275513640114484 1 17 3 2
0.000389686785970105 1 17 3 4
-0.0008304779641060203 1 17 3 6
7.16373237039141e-05 1 17 3 8
0.0001738168059732468 1 17 3 11
0.001864196336594263 1 17 3 13
-0.001771930727741678 1 17 3 16
-0.0008505586046472482 1 17 3 18
0.0007966987224824515 1 17 3 22
0.002788887279019725 1 17 3 23
-0.002268911280306152 1 18 3 3
-0.003075966218451295 1 18 3 7
-0.0001835247262955357 1 18 3 10
-0.006401660057576679 1 18 3 12
0.0004167726516702393 1 18 3 17
0.007270945588506455 1 18 3 19
0.00328093348333233 1 18 3 24
-0.01410253756715209 1 19 3 1
-0.01248188000358287 1 19 3 2
-0.004606247776033459 1 19 3 4
0.001894048492036115 1 19 3 6
0.001974923204480682 1 19 3 8
-0.0008633742955356998 1 19 3 11
-0.005591742131396649 1 19 3 13
0.005973031571851904 1 19 3 16
0.003191253147551532 1 19 3 18
-0.003507656717484741 1 19 3 22
-0.008901548564498705 1 19 3 23
-0.001801257675903926 1 20 3 14
-0.002427561870999997 1 20 3 21
0.004902607289256508 1 21 3 5
0.003299743141378694 1 21 3 9
0.0005207855754309817 1 21 3 15
-0.0003933642056139454 1 21 3 20
-0.001214130558513727 1 22 3 3
0.001603798787781548 1 22 3 7
-0.00205482482463524 1 22 3 10
0.004633077761646291 1 22 3 12
-0.001282489669275486 1 22 3 17
-0.007122411062527902 1 22 3 19
-0.006677911875494432 1 22 3 24
0.006635003060601653 1 23 3 3
0.001496393622494534 1 23 3 7
0.003332646731173254 1 23 3 10
-0.0008470927657262156 1 23 3 12
0.0009677399604000845 1 23 3 17
0.005622773940818854 1 23 3 19
0.009462648898280536 1 23 3 24
0.02117126074442102 1 24 3 1
0.02218585689876912 1 24 3 2
-0.001585827699426542 1 24 3 4
-0.005051786322233601 1 24 3 6
0.002876992708504571 1 24 3 8
0.0005863089034064964 1 24 3 11
0.01050996883945663 1 24 3 13
-0.008487758988740848 1 24 3 16
-0.003430629299104508 1 24 3 18
0.00294810176521156 1 24 3 22
0.01523587593339914 1 24 3 23
-0.13486834407418 1 1 4 1
0.08936181620680937 1 1 4 2
0.97770000084545 1 1 4 4
0.08593301725830758 1 1 4 6
-0.378729173414118 1 1 4 8
0.02952535844518526 1 1 4 11
-0.03759225810289904 1 1 4 13
-0.177167909963172 1 1 4 16
-0.06567264417510289 1 1 4 18
0.16966104451049 1 1 4 22
-0.133952589380774 1 1 4 23
0.01644292163292913 1 2 4 1
-0.007647889805631655 1 2 4 2
-0.01272088355008027 1 2 4 4
-0.0003584330749876267 1 2 4 6
0.009932688831285065 1 2 4 8
0.001105982350477347 1 2 4 11
0.0007309651061842029 1 2 4 13
0.008573073426878 1 2 4 16
0.002953269593166646 1 2 4 18
-0.002896412336238506 1 2 4 22
0.006449359369703682 1 2 4 23
0.003097319299528689 1 3 4 3
0.005139915902383665 1 3 4 7
-0.002490376925682982 1 3 4 10
0.009846191054113449 1 3 4 12
5.193767186895757e-05 1 3 4 17
-0.01253636912548211 1 3 4 19
-0.01091249949161384 1 3 4 24
0.03136776791346627 1 4 4 1
0.02330713400396117 1 4 4 2
0.009071399854802787 1 4 4 4
-0.003890046031772833 1 4 4 6
-0.002490604457139093 1 4 4 8
-0.005756603943126204 1 4 4 11
-0.003512522319649128 1 4 4 13
-0.01514385885168467 1 4 4 16
0.000456342361168116 1 4 4 18
-0.01721603112223901 1 4 4 22
-0.007641934265543277 1 4 4 23
0.009205332567658998 1 5 4 5
0.005592977709195758 1 5 4 9
0.01216319798809384 1 5 4 15
0.01752695290035793 1 5 4 20
0.0005534061789460506 1 6 4 1
0.00795789728384633 1 6 4 2
0.006559669642965216 1 6 4 4
-0.0007779553300791396 1 6 4 6
-0.004094979437141343 1 6 4 8
-0.001733738848087591 1 6 4 11
-0.0009691434541274333 1 6 4 13
-0.006488612172368523 1 6 4 16
-0.000932839849368352 1 6 4 18
-0.002813393930097871 1 6 4 22
-0.003998253998292532 1 6 4 23
0.002205193099668883 1 7 4 3
0.003360674254465015 1 7 4 7
-0.001504300270247227 1 7 4 10
0.006365501457344092 1 7 4 12
9.611778169376511e-05 1 7 4 17
-0.008065059881619218 1 7 4 19
-0.007017468364537017 1 7 4 24
-0.02584071531295448 1 8 4 1
-0.02152626276856172 1 8 4 2
-0.01062026150185598 1 8 4 4
0.003352444887170045 1 8 4 6
0.004313607742925353 1 8 4 8
0.005230863434914532 1 8 4 11
0.002949141796889794 1 8 4 13
0.01505238970951695 1 8 4 16
0.0001686264295979999 1 8 4 18
0.01439877098282694 1 8 4 22
0.007927542635760114 1 8 4 23
0.00834528574614344 1 9 4 5
0.005153346755531601 1 9 4 9
0.0107787225874729 1 9 4 15
0.01572249036036092 1 9 4 20
0.001468083720064535 1 10 4 3
0.002453257928790575 1 10 4 7
-0.001124810466871101 1 10 4 10
0.004851308612428639 1 10 4 12
-1.878640929477248e-05 1 10 4 17
-0.00622052286973567 1 10 4 19
-0.005513461539552237 1 10 4 24
-0.00289042699518434 1 11 4 1
0.006188121193616599 1 11 4 2
0.005714113949642209 1 11 4 4
-0.0005237619575292181 1 11 4 6
-0.003978777179997265 1 11 4 8
-0.001331812572442218 1 11 4 11
-0.0006436177691131335 1 11 4 13
-0.005385514999754517 1 11 4 16
-0.001221364720081609 1 11 4 18
-0.001502855603137515 1 11 4 22
-0.003054610068757885 1 11 4 23
0.004613525685783924 1 12 4 3
0.005706749084672192 1 12 4 7
-0.001788126077366787 1 12 4 10
0.01054665869429393 1 12 4 12
0.0004524302414257924 1 12 4 17
-0.01289121858974955 1 12 4 19
-0.01062147547071443 1 12 4 24
0.002262209025326919 1 13 4 1
-0.007209141203204246 1 13 4 2
-0.007945670924626974 1 13 4 4
0.0003320708096207554 1 13 4 6
0.005354434300035921 1 13 4 8
0.001299265752226738 1 13 4 11
0.001076459861103777 1 13 4 13
0.006716505979422239 1 13 4 16
0.001499077303237528 1 13 4 18
0.001758710397363488 1 13 4 22
0.004853240722566684 1 13 4 23
4.250204315708655e-05 1 14 4 14
0.0006170995699534033 1 14 4 21
0.004219958478763108 1 15 4 5
0.00265873158067978 1 15 4 9
0.003591738810062109 1 15 4 15
0.004901673668333384 1 15 4 20
-0.02066157526651126 1 16 4 1
-0.003085223255695294 1 16 4 2
0.001872289072111877 1 16 4 4
0.0009811916655842424 1 16 4 6
-0.003373864902387052 1 16 4 8
0.0008574196515562592 1 16 4 11
0.001114383785745614 1 16 4 13
0.0007177785837973398 1 16 4 16
-0.001148803303934301 1 16 4 18
0.006975246542372977 1 16 4 22
-0.0005921286713493557 1 16 4 23
0.0003896867859701046 1 17 4 3
0.0008187800242319556 1 17 4 7
-0.0004913992678649475 1 17 4 10
0.001640454300979251 1 17 4 12
-7.438180589897706e-05 1 17 4 17
-0.002199290200498228 1 17 4 19
-0.002012370819904829 1 17 4 24
-0.006086555723039357 1 18 4 1
-0.01244111521457926 1 18 4 2
-0.00991184119949563 1 18 4 4
0.001373868472803697 1 18 4 6
0.005970020988236373 1 18 4 8
0.002690954118873959 1 18 4 11
0.001567019833614059 1 18 4 13
0.01044994810240281 1 18 4 16
0.001908872885566045 1 18 4 18
0.006199764091508963 1 18 4 22
0.00535657657099622 1 18 4 23
-0.004606247776033457 1 19 4 3
-0.004338209941235479 1 19 4 7
0.0004512852617677617 1 19 4 10
-0.007495261234873306 1 19 4 12
-0.000756621644544706 1 19 4 17
0.008461726629861038 1 19 4 19
0.006177549629116463 1 19 4 24
0.003569496829569683 1 20 4 5
0.002516492656821353 1 20 4 9
-0.0001903247619886645 1 20 4 15
-0.001389510336807811 1 20 4 20
0.0003575099866528321 1 21 4 14
0.002062970121983007 1 21 4 21
0.01471020184413262 1 22 4 1
0.01508378944547003 1 22 4 2
0.002776237408996145 1 22 4 4
-0.003409918582217127 1 22 4 6
-0.0001378013781346069 1 22 4 8
-0.004608927418789264 1 22 4 11
-0.0005865514845538797 1 22 4 13
-0.008829379261646971 1 22 4 16
0.001697987657655273 1 22 4 18
-0.009316241919694003 1 22 4 22
-0.003156397020429736 1 22 4 23
-0.01305730789884355 1 23 4 1
-0.01411177654854386 1 23 4 2
-0.01100392045480915 1 23 4 4
0.001413023113740489 1 23 4 6
0.005914134488269379 1 23 4 8
0.003119743941291472 1 23 4 11
0.002532241814597856 1 23 4 13
0.0112608230230177 1 23 4 16
0.000504971765179569 1 23 4 18
0.007600206297127167 1 23 4 22
0.008900349787636817 1 23 4 23
-0.001585827699426545 1 24 4 3
0.001894291565188492 1 24 4 7
-0.003331871474667634 1 24 4 10
0.005152575241635531 1 24 4 12
-0.001031786715318485 1 24 4 17
-0.00859553143649248 1 24 4 19
-0.01026431453994817 1 24 4 24
1.02897110398974 1 1 5 5
0.443476236317248 1 1 5 9
0.114228328315411 1 1 5 15
-0.069034802732668 1 1 5 20
-0.01166038894245526 1 2 5 5
-0.01117203372713742 1 2 5 9
-0.004681764877493182 1 2 5 15
-0.001178132107189716 1 2 5 20
0.008755920047190781 1 3 5 14
0.01750703270180694 1 3 5 21
-0.004445371245911667 1 4 5 5
-0.003610649774147895 1 4 5 9
0.00888500051716918 1 4 5 15
0.01877313373444573 1 4 5 20
0.03210154165224961 1 5 5 1
0.03010034708720815 1 5 5 2
0.009205332567658996 1 5 5 4
-0.007396827757816565 1 5 5 6
-0.001540409080646199 1 5 5 8
-0.01384723830799111 1 5 5 11
0.009902608797193948 1 5 5 13
-0.003076342149343209 1 5 5 16
0.02345097922654887 1 5 5 18
0.01341396694429679 1 5 5 22
-0.007613027074295111 1 5 5 23
0.003120980270401945 1 6 5 5
0.00316498408360556 1 6 5 9
0.003616288479248507 1 6 5 15
0.004619281959432337 1 6 5 20
0.00552966829503052 1 7 5 14
0.0112299922366889 1 7 5 21
0.001788939313159509 1 8 5 5
0.001115156870349828 1 8 5 9
-0.008420972650011013 1 8 5 15
-0.01658630199337148 1 8 5 20
0.03115452126038608 1 9 5 1
0.02675210710768654 1 9 5 2
0.00834528574614344 1 9 5 4
-0.006671807504725636 1 9 5 6
-0.001447995461301959 1 9 5 8
-0.01236752527232922 1 9 5 11
0.008976880556572161 1 9 5 13
-0.003204414404321881 1 9 5 16
0.02104745499065036 1 9 5 18
0.01207747294129302 1 9 5 22
-0.00685698212127872 1 9 5 23
0.004263204264462757 1 10 5 14
0.008759090906562078 1 10 5 21
0.002405725541153349 1 11 5 5
0.002937235782076914 1 11 5 9
0.002673624037126553 1 11 5 15
0.003307301975055312 1 11 5 20
0.008218508749901024 1 12 5 14
0.01720812127128439 1 12 5 21
-0.003159033679964436 1 13 5 5
-0.003564749167789926 1 13 5 9
-0.003373818681777161 1 13 5 15
-0.0039796840042551 1 13 5 20
0.001537499255404702 1 14 5 3
0.0008575819106854205 1 14 5 7
0.0003852917774378071 1 14 5 10
0.001076867979202881 1 14 5 12
0.0002905217828965136 1 14 5 17
-0.0004325385837571132 1 14 5 19
0.0009563283599573522 1 14 5 24
0.00849877766403889 1 15 5 1
0.007262475714622445 1 15 5 2
0.004219958478763108 1 15 5 4
-0.001417363429989175 1 15 5 6
-0.001607067163237532 1 15 5 8
-0.003127928927828965 1 15 5 11
0.002136403063246784 1 15 5 13
-0.001288216096213394 1 15 5 16
0.005504066636027379 1 15 5 18
0.004248069263197456 1 15 5 22
-0.002648415890364068 1 15 5 23
0.008478242515003119 1 16 5 5
0.00787055906725335 1 16 5 9
-4.821455928939959e-05 1 16 5 15
-0.005645253021047049 1 16 5 20
0.001558850966024981 1 17 5 14
0.003121534196105244 1 17 5 21
0.001225273443286525 1 18 5 5
-0.000524423593443785 1 18 5 9
-0.004415913997968574 1 18 5 15
-0.008980130749854915 1 18 5 20
-0.00461439691389333 1 19 5 14
-0.01029473947205781 1 19 5 21
-0.004730482211632634 1 20 5 1
-0.0052625445505874 1 20 5 2
0.00356949682956968 1 20 5 4
0.002392287492438318 1 20 5 6
-0.003112156309681509 1 20 5 8
0.003123562562002104 1 20 5 11
-0.002580233693283906 1 20 5 13
-0.0006074657701386364 1 20 5 16
-0.004938606263421209 1 20 5 18
0.000248187523217797 1 20 5 22
-0.0007743991649861935 1 20 5 23
0.004902607289256508 1 21 5 3
0.002885194809390691 1 21 5 7
0.001348824046644009 1 21 5 10
0.003710034854176277 1 21 5 12
0.0009287596692810143 1 21 5 17
-0.001735675379148313 1 21 5 19
0.003109867718727501 1 21 5 24
0.003789850450837498 1 22 5 5
0.0029452942233197 1 22 5 9
0.006651339365385737 1 22 5 15
0.009987029133706492 1 22 5 20
-0.003865664130916655 1 23 5 5
-0.003331807752180662 1 23 5 9
-0.006764271180412668 1 23 5 15
-0.00980751062386637 1 23 5 20
0.007904105364193904 1 24 5 14
0.01539716558667475 1 24 5 21
0.135030726156274 1 1 6 1
-0.197423456012055 1 1 6 2
0.08593301725830767 1 1 6 4
0.378661772464083 1 1 6 6
-0.09371968484922434 1 1 6 8
0.135683535072648 1 1 6 11
-0.11819983679585 1 1 6 13
0.103091512459567 1 1 6 16
-0.09777024231610332 1 1 6 18
0.05736159113512727 1 1 6 22
-0.06190112863492627 1 1 6 23
-0.02134514599363311 1 2 6 1
0.004368902204986691 1 2 6 2
-0.0003584330749876279 1 2 6 4
-0.001613317628709484 1 2 6 6
0.001036476773034414 1 2 6 8
-0.00184531711711929 1 2 6 11
0.002484985232967039 1 2 6 13
-0.002693248882977046 1 2 6 16
0.002989646289335265 1 2 6 18
-0.0006629356032449077 1 2 6 22
0.002445326933125556 1 2 6 23
-0.004246570642291774 1 3 6 3
-0.005116577579195884 1 3 6 7
-0.003540656466889408 1 3 6 10
-0.003755220402802613 1 3 6 12
-0.001850936561573801 1 3 6 17
-0.001158492444374186 1 3 6 19
-0.006613521101133393 1 3 6 24
0.0005534061789460531 1 4 6 1
0.008432782116811354 1 4 6 2
-0.003890046031772838 1 4 6 4
-0.005096427179636143 1 4 6 6
0.006858219231246802 1 4 6 8
-0.004512751519755154 1 4 6 11
0.002957265539482867 1 4 6 13
-0.003570739945729394 1 4 6 16
0.003103464712208736 1 4 6 18
-0.008034245346576794 1 4 6 22
0.0009331576504406498 1 4 6 23
-0.007396827757816562 1 5 6 5
-0.007386110950295482 1 5 6 9
-0.0002142342010718997 1 5 6 15
0.006268837397033103 1 5 6 20
0.008401691152071011 1 6 6 1
0.0002782500044300665 1 6 6 2
-0.0007779553300791407 1 6 6 4
-0.0005137925522283754 1 6 6 6
0.001167574488434258 1 6 6 8
-0.0003175878807393894 1 6 6 11
-0.0002577838836084501 1 6 6 13
0.0002290686435554584 1 6 6 16
-0.000397824425994472 1 6 6 18
-0.001549146413590166 1 6 6 22
-0.0006899832633814972 1 6 6 23
-0.002709668820075212 1 7 6 3
-0.003239734014823896 1 7 6 7
-0.002245314599522521 1 7 6 10
-0.002373643622753835 1 7 6 12
-0.001153320821580355 1 7 6 17
-0.0006948816567713333 1 7 6 19
-0.004171614199017016 1 7 6 24
-0.005304661124460515 1 8 6 1
-0.006449402428420517 1 8 6 2
0.003352444887170051 1 8 6 4
0.00404673991081387 1 8 6 6
-0.005601578493269711 1 8 6 8
0.003546794033664152 1 8 6 11
-0.002089599556433835 1 8 6 13
0.002590577312489084 1 8 6 16
-0.002186439208944691 1 8 6 18
0.00681904993736948 1 8 6 22
-0.000339086581038847 1 8 6 23
-0.006671807504725633 1 9 6 5
-0.006471100497217788 1 9 6 9
-0.0001826022210521744 1 9 6 15
0.005572559082337229 1 9 6 20
-0.002239349648552746 1 10 6 3
-0.00253195624847318 1 10 6 7
-0.001666751011905964 1 10 6 10
-0.001846348077671739 1 10 6 12
-0.0009168558821407739 1 10 6 17
-0.0005580002311477081 1 10 6 19
-0.003463023656890318 1 10 6 24
0.009055273860896877 1 11 6 1
-0.0004787333401301442 1 11 6 2
-0.0005237619575292181 1 11 6 4
-9.520150705588998e-05 1 11 6 6
0.0006038748300797509 1 11 6 8
4.566202220487818e-05 1 11 6 11
-0.0005374581339994596 1 11 6 13
0.0006484215190185449 1 11 6 16
-0.0004955384380502426 1 11 6 18
-0.0009042585063024577 1 11 6 22
-0.001067901492805101 1 11 6 23
-0.003917480689093961 1 12 6 3
-0.00459394724986564 1 12 6 7
-0.003215173154309187 1 12 6 10
-0.003444738050424214 1 12 6 12
-0.001653076226942519 1 12 6 17
-0.0008438044283927243 1 12 6 19
-0.005927624544228832 1 12 6 24
-0.01036283477767491 1 13 6 1
0.00039635976603694 1 13 6 2
0.0003320708096207561 1 13 6 4
0.0001625995130174759 1 13 6 6
-0.0005650363987843138 1 13 6 8
-1.461157382685419e-05 1 13 6 11
0.0005437178068814593 1 13 6 13
-0.0005150721433678282 1 13 6 16
0.000792476120794054 1 13 6 18
0.0006992959266516646 1 13 6 22
0.0007621354286421722 1 13 6 23
-9.230578161615691e-05 1 14 6 14
-0.0004920439703664221 1 14 6 21
-0.001417363429989174 1 15 6 5
-0.00150308846215462 1 15 6 9
-0.0001007664753120949 1 15 6 15
0.000981393971210038 1 15 6 20
0.01299024879603381 1 16 6 1
-0.004929569390229522 1 16 6 2
0.0009811916655842444 1 16 6 4
0.002324978333592636 1 16 6 6
-0.002449136729611656 1 16 6 8
0.002328746042270272 1 16 6 11
-0.002210989493130249 1 16 6 13
0.002568366598686418 1 16 6 16
-0.002763644826111641 1 16 6 18
0.002458297989005531 1 16 6 22
-0.001446930077649532 1 16 6 23